data_MIL-88A-open

_audit_creation_method RASPA-1.0
_audit_creation_date 2022-3-30
_audit_author_name ''

_citation_author_name        'C. Serre, C. Mellot-Draznieks, S. Surble, N. Audebrand, Y. Filinchuk, and F. Ferey'
_citation_title              'Role of solvent-host interactions that lead to very large swelling of hybrid frameworks'
_citation_journal_abbrev     'Science'
_citation_journal_volume     315
_citation_page_first         1828
_citation_page_last          1831
_citation_year               2007

_cell_length_a    13.8711
_cell_length_b    13.8711
_cell_length_c    12.663
_cell_angle_alpha 90
_cell_angle_beta  90
_cell_angle_gamma 120
_cell_volume      2110.03

_symmetry_cell_setting          hexagonal
_symmetry_space_group_name_Hall 'P -6c -2c'
_symmetry_space_group_name_H-M  'P -6 2 c'
_symmetry_Int_Tables_number     190

loop_
_symmetry_equiv_pos_as_xyz
 'x,y,z'
 '-y,x-y,z'
 '-x+y,-x,z'
 'x,y,-z+1/2'
 '-y,x-y,-z+1/2'
 '-x+y,-x,-z+1/2'
 'y,x,-z'
 'x-y,-y,-z'
 '-x,-x+y,-z'
 'y,x,z+1/2'
 'x-y,-y,z+1/2'
 '-x,-x+y,z+1/2'

loop_
_atom_site_label
_atom_site_type_symbol
_atom_site_fract_x
_atom_site_fract_y
_atom_site_fract_z
_atom_site_charge
Fe       Fe     0.748461300000     0.251578400000     0.250000000000     0     
O1       O      0.666666700000     0.333333300000     0.250000000000     0     
O2       O      0.494019900000     0.149382000000     0.143951700000     0     
O3       O      0.655425900000     0.149387600000     0.143950000000     0     
O4       O      0.827939300000     0.172225300000     0.250000000000     0     
C1       C      0.554816800000     0.109572000000     0.114300000000     0     
C2       C      0.501505300000     0.002960000000     0.052879300000     0     
H1       H      0.463105500000     0.926205400000     0.097748000000     0     


