data_MIL-88A-open

_audit_creation_method RASPA-1.0
_audit_creation_date 2022-3-30
_audit_author_name ''

_citation_author_name        'C. Serre, C. Mellot-Draznieks, S. Surble, N. Audebrand, Y. Filinchuk, and F. Ferey'
_citation_title              'Role of solvent-host interactions that lead to very large swelling of hybrid frameworks'
_citation_journal_abbrev     'Science'
_citation_journal_volume     315
_citation_page_first         1828
_citation_page_last          1831
_citation_year               2007

_cell_length_a    13.8711
_cell_length_b    13.8711
_cell_length_c    12.663
_cell_angle_alpha 90
_cell_angle_beta  90
_cell_angle_gamma 120
_cell_volume      2110.03

_symmetry_cell_setting          hexagonal
_symmetry_space_group_name_Hall 'P 1'
_symmetry_space_group_name_H-M  'P 1'
_symmetry_Int_Tables_number     1

_symmetry_equiv_pos_as_xyz 'x,y,z'

loop_
_atom_site_label
_atom_site_type_symbol
_atom_site_fract_x
_atom_site_fract_y
_atom_site_fract_z
_atom_site_charge
Fe       Fe     0.748461300000     0.251578400000     0.250000000000     0          
O1       O      0.666666700000     0.333333300000     0.250000000000     0          
O2       O      0.494019900000     0.149382000000     0.143951700000     0          
O3       O      0.655425900000     0.149387600000     0.143950000000     0          
O4       O      0.827939300000     0.172225300000     0.250000000000     0          
C1       C      0.554816800000     0.109572000000     0.114300000000     0          
C2       C      0.501505300000     0.002960000000     0.052879300000     0          
H1       H      0.463105500000     0.926205400000     0.097748000000     0          
Fe       Fe     0.503117100000     0.251538700000     0.250000000000     0          
O2       O      0.655362100000     0.505980100000     0.356048300000     0          
O3       O      0.493961700000     0.344574100000     0.356050000000     0          
O4       O      0.344286000000     0.172060700000     0.250000000000     0          
C1       C      0.554755200000     0.445183200000     0.385700000000     0          
C2       C      0.501454700000     0.498494700000     0.447120700000     0          
H1       H      0.463099900000     0.536894500000     0.402252000000     0          
Fe       Fe     0.748421600000     0.496882900000     0.250000000000     0          
O2       O      0.850618000000     0.344637900000     0.143951700000     0          
O3       O      0.850612400000     0.506038300000     0.143950000000     0          
O4       O      0.827774700000     0.655714000000     0.250000000000     0          
C1       C      0.890428000000     0.445244800000     0.114300000000     0          
C2       C      0.997040000000     0.498545300000     0.052879300000     0          
H1       H      0.073794600000     0.536900100000     0.097748000000     0          
O2       O      0.494019900000     0.149382000000     0.356048300000     0          
O3       O      0.655425900000     0.149387600000     0.356050000000     0          
C1       C      0.554816800000     0.109572000000     0.385700000000     0          
C2       C      0.501505300000     0.002960000000     0.447120700000     0          
H1       H      0.463105500000     0.926205400000     0.402252000000     0          
O2       O      0.655362100000     0.505980100000     0.143951700000     0          
O3       O      0.493961700000     0.344574100000     0.143950000000     0          
C1       C      0.554755200000     0.445183200000     0.114300000000     0          
C2       C      0.501454700000     0.498494700000     0.052879300000     0          
H1       H      0.463099900000     0.536894500000     0.097748000000     0          
O2       O      0.850618000000     0.344637900000     0.356048300000     0          
O3       O      0.850612400000     0.506038300000     0.356050000000     0          
C1       C      0.890428000000     0.445244800000     0.385700000000     0          
C2       C      0.997040000000     0.498545300000     0.447120700000     0          
H1       H      0.073794600000     0.536900100000     0.402252000000     0          
Fe       Fe     0.251578400000     0.748461300000     0.750000000000     0          
O1       O      0.333333300000     0.666666700000     0.750000000000     0          
O2       O      0.149382000000     0.494019900000     0.643951700000     0          
O3       O      0.149387600000     0.655425900000     0.643950000000     0          
O4       O      0.172225300000     0.827939300000     0.750000000000     0          
C1       C      0.109572000000     0.554816800000     0.614300000000     0          
C2       C      0.002960000000     0.501505300000     0.552879300000     0          
H1       H      0.926205400000     0.463105500000     0.597748000000     0          
Fe       Fe     0.496882900000     0.748421600000     0.750000000000     0          
O2       O      0.344637900000     0.850618000000     0.856048300000     0          
O3       O      0.506038300000     0.850612400000     0.856050000000     0          
O4       O      0.655714000000     0.827774700000     0.750000000000     0          
C1       C      0.445244800000     0.890428000000     0.885700000000     0          
C2       C      0.498545300000     0.997040000000     0.947120700000     0          
H1       H      0.536900100000     0.073794600000     0.902252000000     0          
Fe       Fe     0.251538700000     0.503117100000     0.750000000000     0          
O2       O      0.505980100000     0.655362100000     0.643951700000     0          
O3       O      0.344574100000     0.493961700000     0.643950000000     0          
O4       O      0.172060700000     0.344286000000     0.750000000000     0          
C1       C      0.445183200000     0.554755200000     0.614300000000     0          
C2       C      0.498494700000     0.501454700000     0.552879300000     0          
H1       H      0.536894500000     0.463099900000     0.597748000000     0          
O2       O      0.149382000000     0.494019900000     0.856048300000     0          
O3       O      0.149387600000     0.655425900000     0.856050000000     0          
C1       C      0.109572000000     0.554816800000     0.885700000000     0          
C2       C      0.002960000000     0.501505300000     0.947120700000     0          
H1       H      0.926205400000     0.463105500000     0.902252000000     0          
O2       O      0.344637900000     0.850618000000     0.643951700000     0          
O3       O      0.506038300000     0.850612400000     0.643950000000     0          
C1       C      0.445244800000     0.890428000000     0.614300000000     0          
C2       C      0.498545300000     0.997040000000     0.552879300000     0          
H1       H      0.536900100000     0.073794600000     0.597748000000     0          
O2       O      0.505980100000     0.655362100000     0.856048300000     0          
O3       O      0.344574100000     0.493961700000     0.856050000000     0          
C1       C      0.445183200000     0.554755200000     0.885700000000     0          
C2       C      0.498494700000     0.501454700000     0.947120700000     0          
H1       H      0.536894500000     0.463099900000     0.902252000000     0          


